[Molden Format]
[Atoms] Angs
 O     1  8    -0.063459    -1.525383     0.106962
 H     2  1    -0.141526    -2.028905    -0.709256
 H     3  1    -0.778367    -0.862982     0.053394
 O     4  8     1.362049     0.863464    -0.084025
 H     5  1     1.817633     1.041620     0.744257
 H     6  1     1.139523    -0.085766    -0.041050
 O     7  8    -1.435284     0.884476    -0.156138
 H     8  1    -1.810648     1.273160     0.639583
 H     9  1    -0.509157     1.190487    -0.171253
[GTO]
  1 0
 s    6 1.00
  0.5484671660D+04  0.1831074430D-02
  0.8252349460D+03  0.1395017220D-01
  0.1880469580D+03  0.6844507810D-01
  0.5296450000D+02  0.2327143360D+00
  0.1689757040D+02  0.4701928980D+00
  0.5799635300D+01  0.3585208530D+00
 sp   3 1.00
  0.1553961620D+02 -0.1107775495D+00  0.7087426823D-01
  0.3599933600D+01 -0.1480262627D+00  0.3397528391D+00
  0.1013761800D+01  0.1130767015D+01  0.7271585773D+00
 sp   1 1.00
  0.2700058000D+00  0.1000000000D+01  0.1000000000D+01
 d    1 1.00
  0.8000000000D+00  0.1000000000D+01
  
  2 0
 s    3 1.00
  0.1873113700D+02  0.3349460434D-01
  0.2825394400D+01  0.2347269535D+00
  0.6401217000D+00  0.8137573261D+00
 s    1 1.00
  0.1612778000D+00  0.1000000000D+01
 p    1 1.00
  0.1100000000D+01  0.1000000000D+01
  
  3 0
 s    3 1.00
  0.1873113700D+02  0.3349460434D-01
  0.2825394400D+01  0.2347269535D+00
  0.6401217000D+00  0.8137573261D+00
 s    1 1.00
  0.1612778000D+00  0.1000000000D+01
 p    1 1.00
  0.1100000000D+01  0.1000000000D+01
  
  4 0
 s    6 1.00
  0.5484671660D+04  0.1831074430D-02
  0.8252349460D+03  0.1395017220D-01
  0.1880469580D+03  0.6844507810D-01
  0.5296450000D+02  0.2327143360D+00
  0.1689757040D+02  0.4701928980D+00
  0.5799635300D+01  0.3585208530D+00
 sp   3 1.00
  0.1553961620D+02 -0.1107775495D+00  0.7087426823D-01
  0.3599933600D+01 -0.1480262627D+00  0.3397528391D+00
  0.1013761800D+01  0.1130767015D+01  0.7271585773D+00
 sp   1 1.00
  0.2700058000D+00  0.1000000000D+01  0.1000000000D+01
 d    1 1.00
  0.8000000000D+00  0.1000000000D+01
  
  5 0
 s    3 1.00
  0.1873113700D+02  0.3349460434D-01
  0.2825394400D+01  0.2347269535D+00
  0.6401217000D+00  0.8137573261D+00
 s    1 1.00
  0.1612778000D+00  0.1000000000D+01
 p    1 1.00
  0.1100000000D+01  0.1000000000D+01
  
  6 0
 s    3 1.00
  0.1873113700D+02  0.3349460434D-01
  0.2825394400D+01  0.2347269535D+00
  0.6401217000D+00  0.8137573261D+00
 s    1 1.00
  0.1612778000D+00  0.1000000000D+01
 p    1 1.00
  0.1100000000D+01  0.1000000000D+01
  
  7 0
 s    6 1.00
  0.5484671660D+04  0.1831074430D-02
  0.8252349460D+03  0.1395017220D-01
  0.1880469580D+03  0.6844507810D-01
  0.5296450000D+02  0.2327143360D+00
  0.1689757040D+02  0.4701928980D+00
  0.5799635300D+01  0.3585208530D+00
 sp   3 1.00
  0.1553961620D+02 -0.1107775495D+00  0.7087426823D-01
  0.3599933600D+01 -0.1480262627D+00  0.3397528391D+00
  0.1013761800D+01  0.1130767015D+01  0.7271585773D+00
 sp   1 1.00
  0.2700058000D+00  0.1000000000D+01  0.1000000000D+01
 d    1 1.00
  0.8000000000D+00  0.1000000000D+01
  
  8 0
 s    3 1.00
  0.1873113700D+02  0.3349460434D-01
  0.2825394400D+01  0.2347269535D+00
  0.6401217000D+00  0.8137573261D+00
 s    1 1.00
  0.1612778000D+00  0.1000000000D+01
 p    1 1.00
  0.1100000000D+01  0.1000000000D+01
  
  9 0
 s    3 1.00
  0.1873113700D+02  0.3349460434D-01
  0.2825394400D+01  0.2347269535D+00
  0.6401217000D+00  0.8137573261D+00
 s    1 1.00
  0.1612778000D+00  0.1000000000D+01
 p    1 1.00
  0.1100000000D+01  0.1000000000D+01
 

[MO]
 Ene=   -20.5657
 Spin= Alpha
 Occup=   2.000000
   1  -0.002022
   2  -0.000094
   3   0.000018
   4  -0.000003
   5  -0.000002
   6   0.000260
   7  -0.000103
   8   0.000062
   9   0.000020
  10  -0.000012
  11  -0.000021
  12  -0.000028
  13  -0.000012
  14   0.000003
  15  -0.000003
  16   0.000002
  17   0.000032
  18   0.000004
  19   0.000008
  20   0.000005
  21  -0.000045
  22  -0.000348
  23  -0.000003
  24  -0.000019
  25   0.000012
  26  -0.001548
  27  -0.000008
  28  -0.000012
  29  -0.000002
  30  -0.000000
  31  -0.000129
  32   0.000041
  33   0.000054
  34   0.000020
  35   0.000033
  36   0.000030
  37   0.000067
  38  -0.000008
  39   0.000010
  40   0.000005
  41  -0.000035
  42   0.000011
  43   0.000005
  44   0.000001
  45   0.000016
  46   0.000029
  47   0.000077
  48  -0.000015
  49   0.000012
  50  -0.000004
  51   0.994642
  52   0.021066
  53   0.000542
  54   0.000764
  55   0.000980
  56   0.004527
  57  -0.000042
  58  -0.000231
  59  -0.000146
  60  -0.003941
  61  -0.003976
  62  -0.003948
  63  -0.000005
  64  -0.000009
  65   0.000032
  66   0.000086
  67  -0.000314
  68  -0.000157
  69   0.000152
  70   0.000286
  71   0.000119
  72  -0.000325
  73   0.000272
  74   0.000099
  75  -0.000019
 Ene=   -20.5637
 Spin= Alpha
 Occup=   2.000000
   1   0.994619
   2   0.021068
   3  -0.000825
   4   0.000120
   5  -0.001061
   6   0.004516
   7   0.000197
   8   0.000068
   9   0.000159
  10  -0.003973
  11  -0.003944
  12  -0.003938
  13  -0.000020
  14   0.000022
  15   0.000021
  16   0.000083
  17  -0.000315
  18  -0.000027
  19  -0.000207
  20  -0.000293
  21   0.000119
  22  -0.000329
  23  -0.000219
  24   0.000192
  25  -0.000001
  26  -0.007052
  27  -0.000196
  28  -0.000008
  29   0.000021
  30  -0.000004
  31   0.000212
  32   0.000002
  33  -0.000112
  34  -0.000016
  35  -0.000004
  36   0.000017
  37  -0.000003
  38   0.000002
  39  -0.000002
  40  -0.000003
  41   0.000001
  42   0.000031
  43  -0.000009
  44  -0.000000
  45  -0.000006
  46  -0.000044
  47  -0.000322
  48   0.000018
  49   0.000008
  50  -0.000011
  51   0.002013
  52   0.000074
  53   0.000011
  54  -0.000006
  55   0.000012
  56  -0.000139
  57  -0.000062
  58   0.000000
  59  -0.000018
  60   0.000016
  61   0.000028
  62   0.000044
  63   0.000004
  64  -0.000007
  65   0.000007
  66  -0.000008
  67   0.000015
  68   0.000002
  69   0.000000
  70   0.000012
  71   0.000027
  72   0.000085
  73  -0.000001
  74  -0.000018
  75   0.000005
 Ene=   -20.5631
 Spin= Alpha
 Occup=   2.000000
   1  -0.007052
   2  -0.000181
   3   0.000003
   4  -0.000013
   5   0.000017
   6   0.000119
   7  -0.000028
   8   0.000054
   9  -0.000022
  10  -0.000009
  11   0.000004
  12  -0.000025
  13  -0.000004
  14  -0.000001
  15  -0.000010
  16   0.000007
  17  -0.000016
  18  -0.000000
  19  -0.000001
  20   0.000014
  21  -0.000029
  22  -0.000078
  23  -0.000016
  24  -0.000008
  25   0.000004
  26  -0.994619
  27  -0.021063
  28  -0.000282
  29   0.000781
  30  -0.001073
  31  -0.004529
  32   0.000168
  33  -0.000140
  34   0.000184
  35   0.003968
  36   0.003954
  37   0.003946
  38  -0.000023
  39  -0.000028
  40   0.000009
  41  -0.000092
  42   0.000313
  43  -0.000185
  44  -0.000076
  45  -0.000297
  46  -0.000117
  47   0.000326
  48   0.000056
  49   0.000285
  50  -0.000000
  51  -0.001563
  52   0.000023
  53   0.000013
  54   0.000014
  55  -0.000002
  56  -0.000293
  57  -0.000110
  58  -0.000065
  59   0.000013
  60   0.000025
  61   0.000042
  62   0.000038
  63  -0.000008
  64   0.000004
  65  -0.000002
  66   0.000018
  67  -0.000046
  68  -0.000002
  69   0.000005
  70   0.000002
  71   0.000042
  72   0.000371
  73   0.000020
  74  -0.000017
  75  -0.000005
 Ene=    -1.3558
 Spin= Alpha
 Occup=   2.000000
   1  -0.118944
   2   0.264009
   3  -0.027180
   4   0.012312
   5  -0.033901
   6   0.247130
   7  -0.008304
   8   0.010429
   9  -0.013043
  10   0.002245
  11   0.002875
  12   0.002062
  13  -0.000639
  14   0.001170
  15   0.000391
  16   0.077983
  17   0.008457
  18   0.000176
  19   0.008035
  20   0.011584
  21   0.080335
  22   0.003962
  23   0.010125
  24  -0.009812
  25  -0.000283
  26  -0.113927
  27   0.252855
  28   0.001593
  29  -0.028485
  30   0.032223
  31   0.236504
  32  -0.005366
  33  -0.011748
  34   0.012138
  35   0.002186
  36   0.002738
  37   0.001977
  38   0.000614
  39   0.001017
  40  -0.000766
  41   0.074782
  42   0.008398
  43  -0.006523
  44  -0.003614
  45  -0.011231
  46   0.076877
  47   0.003908
  48   0.003317
  49   0.013105
  50   0.000424
  51  -0.128547
  52   0.285512
  53   0.026196
  54   0.022569
  55   0.033627
  56   0.267110
  57   0.014208
  58   0.003738
  59   0.013520
  60   0.003417
  61   0.002404
  62   0.002049
  63   0.000117
  64   0.000151
  65   0.001451
  66   0.084668
  67   0.009305
  68   0.007108
  69  -0.005555
  70  -0.012273
  71   0.085472
  72   0.003811
  73  -0.014552
  74  -0.004270
  75   0.001413
 Ene=    -1.3354
 Spin= Alpha
 Occup=   2.000000
   1   0.092232
   2  -0.205269
   3   0.017600
   4  -0.003930
   5   0.026998
   6  -0.195652
   7   0.005654
   8  -0.005073
   9   0.010320
  10  -0.001911
  11  -0.001812
  12  -0.002003
  13   0.000053
  14  -0.000821
  15  -0.000647
  16  -0.062497
  17  -0.006834
  18  -0.000233
  19  -0.006233
  20  -0.009083
  21  -0.051262
  22   0.003394
  23  -0.007553
  24   0.007821
  25   0.000109
  26   0.092644
  27  -0.207576
  28  -0.009260
  29   0.024483
  30  -0.027467
  31  -0.190227
  32  -0.002962
  33   0.011432
  34  -0.010830
  35  -0.000833
  36  -0.003306
  37  -0.002505
  38  -0.000647
  39  -0.001094
  40   0.000710
  41  -0.063739
  42  -0.006118
  43   0.005411
  44   0.002938
  45   0.009326
  46  -0.062057
  47  -0.002817
  48  -0.003244
  49  -0.010238
  50  -0.000389
  51  -0.168170
  52   0.375875
  53   0.025862
  54   0.036905
  55   0.045159
  56   0.350844
  57   0.013979
  58   0.012740
  59   0.017789
  60   0.004566
  61   0.003092
  62   0.003809
  63   0.001091
  64  -0.000265
  65   0.002412
  66   0.115386
  67   0.011790
  68   0.009327
  69  -0.007453
  70  -0.016311
  71   0.102283
  72  -0.001120
  73  -0.019012
  74  -0.004631
  75   0.001790
 Ene=    -1.3337
 Spin= Alpha
 Occup=   2.000000
   1  -0.148859
   2   0.332981
   3  -0.037875
   4   0.004918
   5  -0.043664
   6   0.309240
   7  -0.015947
   8   0.005150
   9  -0.016682
  10   0.003489
  11   0.003050
  12   0.003756
  13  -0.001731
  14   0.001751
  15   0.001045
  16   0.102165
  17   0.009907
  18   0.000330
  19   0.010168
  20   0.014764
  21   0.093571
  22   0.000722
  23   0.011768
  24  -0.012706
  25  -0.000313
  26   0.152425
  27  -0.340098
  28  -0.010836
  29   0.032287
  30  -0.044908
  31  -0.319991
  32  -0.000036
  33   0.014567
  34  -0.017185
  35  -0.002339
  36  -0.003992
  37  -0.003664
  38  -0.000324
  39  -0.001805
  40   0.000832
  41  -0.104259
  42  -0.011198
  43   0.008857
  44   0.004740
  45   0.015274
  46  -0.089927
  47   0.002881
  48  -0.005193
  49  -0.017055
  50  -0.000500
  51   0.002449
  52  -0.006225
  53  -0.002462
  54  -0.004942
  55  -0.000357
  56  -0.001650
  57  -0.000889
  58  -0.003683
  59   0.000029
  60  -0.000816
  61   0.000412
  62  -0.000208
  63  -0.000506
  64  -0.000108
  65  -0.000220
  66  -0.002292
  67   0.000299
  68  -0.000206
  69   0.000138
  70   0.000320
  71  -0.007388
  72  -0.003491
  73   0.000192
  74  -0.000091
  75  -0.000031
 Ene=    -0.7271
 Spin= Alpha
 Occup=   2.000000
   1   0.005230
   2  -0.015325
   3  -0.065911
   4   0.228626
   5   0.114557
   6  -0.004058
   7  -0.034190
   8   0.139549
   9   0.061342
  10   0.004853
  11   0.004704
  12  -0.012066
  13  -0.007927
  14  -0.000922
  15  -0.010318
  16  -0.129369
  17  -0.063107
  18  -0.003060
  19  -0.002854
  20  -0.011132
  21   0.112323
  22   0.053512
  23   0.009882
  24  -0.003468
  25   0.003420
  26   0.003562
  27  -0.011647
  28  -0.171828
  29  -0.177558
  30  -0.137708
  31   0.003487
  32  -0.107597
  33  -0.102191
  34  -0.076353
  35  -0.000555
  36   0.011423
  37  -0.013841
  38   0.004223
  39  -0.008976
  40  -0.004032
  41  -0.140719
  42  -0.070389
  43   0.004273
  44  -0.001215
  45   0.012081
  46   0.117901
  47   0.056236
  48  -0.001796
  49   0.010963
  50  -0.004027
  51   0.003542
  52  -0.011791
  53   0.261352
  54  -0.067330
  55  -0.147239
  56   0.004066
  57   0.155000
  58  -0.045368
  59  -0.080604
  60   0.012698
  61  -0.002156
  62  -0.013855
  63   0.005846
  64   0.007514
  65  -0.008076
  66  -0.151840
  67  -0.076209
  68  -0.001001
  69   0.006203
  70   0.012320
  71   0.131389
  72   0.061601
  73  -0.009765
  74  -0.008008
  75  -0.003108
 Ene=    -0.6997
 Spin= Alpha
 Occup=   2.000000
   1   0.004312
   2  -0.008785
   3   0.177624
   4  -0.303691
   5  -0.211068
   6  -0.023072
   7   0.104084
   8  -0.174871
   9  -0.123167
  10  -0.011613
  11  -0.004564
  12   0.018553
  13   0.013803
  14  -0.000220
  15   0.012553
  16   0.191315
  17   0.104863
  18   0.006874
  19   0.004836
  20   0.015285
  21  -0.184784
  22  -0.093992
  23  -0.014024
  24   0.010447
  25  -0.006974
  26  -0.004722
  27   0.010674
  28  -0.080780
  29  -0.027482
  30  -0.072031
  31   0.022565
  32  -0.049834
  33  -0.012128
  34  -0.044022
  35   0.001797
  36   0.002821
  37  -0.005175
  38   0.000840
  39  -0.003525
  40   0.000551
  41  -0.058199
  42  -0.031662
  43   0.001493
  44   0.000816
  45   0.004884
  46   0.023533
  47   0.012871
  48  -0.000773
  49   0.003063
  50  -0.002369
  51  -0.001476
  52   0.003296
  53   0.231425
  54   0.067451
  55  -0.141123
  56   0.004735
  57   0.133073
  58   0.047531
  59  -0.083512
  60   0.011604
  61  -0.001331
  62  -0.011626
  63   0.010209
  64   0.005404
  65  -0.002276
  66  -0.108740
  67  -0.062757
  68   0.000871
  69   0.007607
  70   0.007549
  71   0.139470
  72   0.069971
  73  -0.012567
  74  -0.003735
  75  -0.003090
 Ene=    -0.6969
 Spin= Alpha
 Occup=   2.000000
   1   0.001389
   2  -0.002885
   3  -0.116767
   4   0.039261
   5   0.033437
   6  -0.009288
   7  -0.075025
   8   0.018749
   9   0.019633
  10   0.004129
  11  -0.000831
  12  -0.003570
  13  -0.005666
  14   0.003245
  15  -0.001553
  16  -0.026384
  17  -0.016788
  18  -0.003612
  19  -0.000605
  20  -0.001735
  21   0.064130
  22   0.032431
  23   0.003078
  24  -0.004856
  25   0.001089
  26   0.002160
  27  -0.004230
  28   0.135315
  29   0.325114
  30   0.194432
  31  -0.011707
  32   0.073299
  33   0.191366
  34   0.111100
  35   0.005149
  36  -0.021029
  37   0.017724
  38  -0.003424
  39   0.009351
  40   0.007354
  41   0.176220
  42   0.098578
  43  -0.007190
  44   0.004773
  45  -0.013978
  46  -0.192558
  47  -0.097779
  48  -0.003421
  49  -0.017608
  50   0.006010
  51  -0.004587
  52   0.009897
  53   0.236610
  54  -0.042696
  55  -0.157554
  56   0.023432
  57   0.136390
  58  -0.026405
  59  -0.089286
  60   0.011489
  61  -0.000451
  62  -0.012231
  63   0.006855
  64   0.006458
  65  -0.006988
  66  -0.141539
  67  -0.076275
  68  -0.000826
  69   0.006252
  70   0.010824
  71   0.119987
  72   0.060196
  73  -0.010628
  74  -0.005846
  75  -0.003292
 Ene=    -0.5915
 Spin= Alpha
 Occup=   2.000000
   1  -0.052539
   2   0.112719
   3   0.242720
   4  -0.006412
   5   0.302006
   6   0.252826
   7   0.166020
   8  -0.004829
   9   0.214243
  10  -0.005847
  11   0.002000
  12  -0.016188
  13   0.004751
  14  -0.015094
  15  -0.000021
  16  -0.121204
  17  -0.074635
  18   0.006261
  19  -0.008439
  20  -0.004542
  21  -0.085441
  22  -0.084845
  23  -0.000462
  24   0.006188
  25   0.008319
  26   0.018773
  27  -0.037965
  28  -0.031483
  29   0.009293
  30   0.125422
  31  -0.097234
  32  -0.026845
  33   0.012858
  34   0.092412
  35   0.001643
  36  -0.001018
  37   0.009097
  38   0.000493
  39   0.000238
  40  -0.002629
  41   0.043151
  42   0.030756
  43  -0.003340
  44  -0.000917
  45  -0.000812
  46   0.001883
  47   0.037086
  48  -0.001889
  49  -0.001808
  50   0.004310
  51   0.039678
  52  -0.089546
  53   0.161904
  54   0.266619
  55   0.182474
  56  -0.178448
  57   0.116802
  58   0.189888
  59   0.131660
  60   0.004326
  61   0.000837
  62   0.006033
  63   0.009956
  64   0.006843
  65   0.012551
  66   0.082304
  67   0.052565
  68   0.009178
  69   0.003594
  70  -0.004097
  71   0.099164
  72   0.051326
  73  -0.009325
  74   0.003188
  75   0.005706
 Ene=    -0.5862
 Spin= Alpha
 Occup=   2.000000
   1  -0.011925
   2   0.029647
   3   0.187068
   4   0.003717
   5   0.047843
   6   0.045592
   7   0.138052
   8   0.002370
   9   0.034454
  10  -0.004291
  11   0.003080
  12   0.000498
  13   0.004760
  14  -0.006709
  15  -0.000079
  16  -0.021903
  17  -0.012173
  18   0.005239
  19  -0.001480
  20  -0.001596
  21  -0.057143
  22  -0.007576
  23  -0.001785
  24   0.007215
  25   0.000070
  26   0.053662
  27  -0.117328
  28   0.146170
  29  -0.268804
  30   0.301820
  31  -0.252878
  32   0.100586
  33  -0.189186
  34   0.207904
  35  -0.005800
  36   0.009385
  37   0.014216
  38  -0.001727
  39   0.008512
  40  -0.014744
  41   0.125859
  42   0.075416
  43  -0.003448
  44  -0.011374
  45  -0.005300
  46   0.101672
  47   0.079876
  48   0.007067
  49   0.005425
  50   0.008047
  51  -0.041748
  52   0.087913
  53  -0.071122
  54  -0.135846
  55  -0.236601
  56   0.207224
  57  -0.047513
  58  -0.088473
  59  -0.163828
  60  -0.001806
  61  -0.002593
  62  -0.012620
  63  -0.003256
  64  -0.004203
  65  -0.010315
  66  -0.104229
  67  -0.062641
  68  -0.007535
  69   0.001029
  70   0.003756
  71  -0.045527
  72  -0.073233
  73   0.001227
  74  -0.002084
  75  -0.006277
 Ene=    -0.5609
 Spin= Alpha
 Occup=   2.000000
   1  -0.042084
   2   0.100928
   3   0.157546
   4  -0.101742
   5   0.291933
   6   0.170177
   7   0.114534
   8  -0.088339
   9   0.206230
  10  -0.000278
  11   0.002975
  12  -0.009331
  13   0.005258
  14  -0.011915
  15   0.003186
  16  -0.091212
  17  -0.059280
  18   0.003742
  19  -0.009506
  20  -0.001789
  21  -0.074127
  22  -0.017172
  23  -0.004103
  24   0.004659
  25   0.006856
  26  -0.038340
  27   0.093291
  28   0.028641
  29   0.180437
  30  -0.266567
  31   0.151171
  32   0.032432
  33   0.138538
  34  -0.192258
  35   0.006425
  36  -0.003186
  37  -0.008439
  38  -0.001533
  39  -0.001400
  40   0.011176
  41  -0.077875
  42  -0.054679
  43   0.005835
  44   0.007351
  45   0.001308
  46  -0.071679
  47  -0.010895
  48  -0.001610
  49  -0.005973
  50  -0.006092
  51  -0.036868
  52   0.089876
  53  -0.173135
  54  -0.075595
  55  -0.252906
  56   0.145354
  57  -0.138756
  58  -0.048420
  59  -0.182483
  60  -0.002146
  61   0.003592
  62  -0.006529
  63  -0.004867
  64  -0.008768
  65  -0.008368
  66  -0.073182
  67  -0.053378
  68  -0.009207
  69   0.001791
  70   0.000843
  71  -0.067160
  72  -0.010015
  73   0.005249
  74   0.001277
  75  -0.008103
 Ene=    -0.5066
 Spin= Alpha
 Occup=   2.000000
   1  -0.004428
   2   0.006944
   3   0.288164
   4   0.099958
   5  -0.081435
   6   0.022875
   7   0.225221
   8   0.091654
   9  -0.060936
  10  -0.012512
  11   0.003159
  12   0.004075
  13   0.001545
  14  -0.007104
  15  -0.004048
  16   0.003747
  17   0.003446
  18   0.008968
  19   0.003258
  20  -0.002030
  21  -0.049291
  22   0.006970
  23   0.000335
  24   0.011620
  25  -0.002627
  26  -0.004637
  27   0.005269
  28  -0.293878
  29   0.189713
  30   0.105158
  31   0.029865
  32  -0.241817
  33   0.142001
  34   0.083930
  35  -0.000789
  36  -0.010227
  37   0.004381
  38   0.008173
  39  -0.009390
  40   0.003292
  41  -0.002827
  42   0.002372
  43  -0.008902
  44   0.006034
  45   0.003229
  46  -0.041660
  47   0.000099
  48  -0.011360
  49  -0.003858
  50   0.003149
  51  -0.004890
  52   0.006111
  53  -0.001638
  54  -0.370014
  55   0.162847
  56   0.030923
  57   0.011329
  58  -0.294270
  59   0.128578
  60  -0.000792
  61  -0.012371
  62   0.007062
  63  -0.008868
  64   0.003724
  65  -0.007868
  66  -0.002889
  67   0.002349
  68  -0.000248
  69  -0.011472
  70   0.005108
  71  -0.043549
  72  -0.002576
  73   0.010156
  74  -0.007974
  75   0.005167
 Ene=    -0.4947
 Spin= Alpha
 Occup=   2.000000
   1   0.000699
   2  -0.012073
   3   0.243709
   4   0.387192
   5  -0.258213
   6   0.030960
   7   0.185163
   8   0.308342
   9  -0.209606
  10  -0.013100
  11  -0.000390
  12   0.007750
  13  -0.007880
  14  -0.001629
  15  -0.014449
  16  -0.009277
  17  -0.004745
  18   0.007976
  19   0.011839
  20  -0.008390
  21   0.027969
  22  -0.051719
  23   0.010838
  24   0.005887
  25  -0.007517
  26  -0.002321
  27   0.011945
  28   0.058475
  29   0.116601
  30  -0.059866
  31  -0.009662
  32   0.049040
  33   0.090376
  34  -0.052330
  35   0.004159
  36  -0.001964
  37   0.001458
  38  -0.000438
  39   0.002081
  40   0.005298
  41   0.006388
  42   0.002315
  43   0.001578
  44   0.003549
  45  -0.001717
  46  -0.036816
  47   0.023245
  48  -0.001703
  49  -0.006667
  50  -0.002085
  51   0.002442
  52  -0.002837
  53  -0.100719
  54   0.278867
  55  -0.162529
  56  -0.023431
  57  -0.080546
  58   0.208737
  59  -0.133776
  60  -0.002446
  61   0.010788
  62  -0.007512
  63   0.001730
  64  -0.006086
  65   0.005142
  66   0.012453
  67   0.006286
  68  -0.002511
  69   0.008527
  70  -0.006562
  71  -0.004197
  72   0.031039
  73  -0.003285
  74   0.007328
  75  -0.004728
 Ene=    -0.4924
 Spin= Alpha
 Occup=   2.000000
   1  -0.002974
   2   0.008675
   3   0.159057
   4   0.068678
   5  -0.041822
   6   0.010496
   7   0.118153
   8   0.050636
   9  -0.034980
  10  -0.004957
  11   0.001763
  12   0.004519
  13  -0.000997
  14  -0.004152
  15  -0.002419
  16  -0.005097
  17  -0.002762
  18   0.005129
  19   0.001785
  20  -0.002381
  21  -0.017149
  22  -0.007467
  23   0.000227
  24   0.006279
  25  -0.000775
  26  -0.000645
  27   0.009556
  28   0.444815
  29  -0.048578
  30  -0.234357
  31  -0.024321
  32   0.348293
  33  -0.030421
  34  -0.186360
  35   0.008227
  36   0.004210
  37  -0.007878
  38  -0.010319
  39   0.012714
  40   0.004228
  41   0.004441
  42   0.002334
  43   0.014357
  44  -0.001818
  45  -0.007516
  46  -0.019648
  47   0.046216
  48   0.010963
  49  -0.004657
  50  -0.006840
  51   0.003298
  52  -0.016754
  53   0.202338
  54  -0.203527
  55   0.211305
  56   0.013651
  57   0.162591
  58  -0.161087
  59   0.165916
  60   0.001850
  61  -0.011082
  62   0.004064
  63   0.001220
  64   0.009437
  65  -0.002253
  66   0.001389
  67  -0.002899
  68   0.006578
  69  -0.006986
  70   0.005914
  71   0.035092
  72  -0.036141
  73  -0.003223
  74  -0.007658
  75   0.005118
 Ene=     0.2014
 Spin= Alpha
 Occup=   0.000000
   1   0.060733
   2  -0.058526
   3   0.027044
   4  -0.019865
   5   0.097398
   6  -0.745069
   7   0.080936
   8  -0.011121
   9   0.243997
  10   0.030776
  11   0.029279
  12   0.021409
  13   0.003625
  14  -0.004790
  15  -0.003309
  16   0.034595
  17   0.677682
  18  -0.000489
  19   0.002538
  20   0.003409
  21   0.025610
  22   0.336841
  23  -0.001145
  24   0.000614
  25  -0.000899
  26   0.065075
  27  -0.060206
  28   0.001398
  29   0.027952
  30  -0.108950
  31  -0.805165
  32  -0.038477
  33   0.065934
  34  -0.268948
  35   0.035819
  36   0.031403
  37   0.023052
  38  -0.002853
  39  -0.005801
  40   0.002661
  41   0.036329
  42   0.767525
  43  -0.002179
  44  -0.001959
  45  -0.004096
  46   0.026703
  47   0.328865
  48  -0.000084
  49  -0.001766
  50   0.000506
  51   0.067749
  52  -0.060554
  53  -0.029332
  54  -0.033692
  55  -0.109706
  56  -0.847527
  57  -0.046261
  58  -0.109400
  59  -0.270740
  60   0.032760
  61   0.036964
  62   0.026101
  63  -0.000958
  64   0.000823
  65  -0.008001
  66   0.038933
  67   0.799543
  68   0.002925
  69  -0.001415
  70  -0.003977
  71   0.029680
  72   0.360208
  73   0.001602
  74   0.000913
  75  -0.000020
 Ene=     0.2485
 Spin= Alpha
 Occup=   0.000000
   1  -0.066432
   2   0.043512
   3  -0.011177
   4  -0.097044
   5  -0.164184
   6   0.920910
   7  -0.038543
   8  -0.207709
   9  -0.414139
  10  -0.045036
  11  -0.038685
  12  -0.022588
  13   0.002227
  14   0.006442
  15   0.009589
  16  -0.055533
  17  -1.229133
  18   0.000526
  19  -0.006373
  20  -0.005794
  21  -0.025431
  22  -0.098146
  23   0.002897
  24  -0.002495
  25  -0.000469
  26  -0.000127
  27  -0.005863
  28   0.015528
  29  -0.066783
  30  -0.013478
  31   0.034855
  32   0.000021
  33  -0.112807
  34  -0.033882
  35  -0.000041
  36   0.000293
  37  -0.004537
  38  -0.002770
  39  -0.000297
  40  -0.002066
  41   0.002077
  42   0.116419
  43  -0.000153
  44  -0.002197
  45  -0.001655
  46  -0.011354
  47  -0.226974
  48  -0.000434
  49  -0.000701
  50  -0.000852
  51   0.054366
  52  -0.022278
  53   0.032398
  54  -0.115855
  55  -0.129694
  56  -0.814533
  57   0.075615
  58  -0.216822
  59  -0.321895
  60   0.040903
  61   0.032676
  62   0.024818
  63   0.003196
  64   0.002835
  65  -0.011805
  66   0.042586
  67   1.008046
  68   0.003455
  69  -0.004106
  70  -0.003913
  71   0.031568
  72   0.240395
  73   0.003255
  74   0.001518
  75  -0.000177
 Ene=     0.2503
 Spin= Alpha
 Occup=   0.000000
   1   0.031749
   2  -0.009931
   3   0.079667
   4   0.036531
   5   0.072699
   6  -0.493192
   7   0.126030
   8   0.064717
   9   0.176529
  10   0.020906
  11   0.022694
  12   0.016069
  13  -0.003534
  14  -0.005300
  15  -0.004003
  16   0.023635
  17   0.521133
  18   0.001977
  19   0.002146
  20   0.001580
  21   0.025234
  22   0.268592
  23  -0.001548
  24   0.000860
  25  -0.000422
  26  -0.069546
  27   0.039145
  28   0.111523
  29   0.009663
  30   0.175822
  31   0.998376
  32   0.226935
  33   0.025591
  34   0.439549
  35  -0.041558
  36  -0.049072
  37  -0.025323
  38   0.000173
  39   0.012346
  40  -0.001579
  41  -0.058968
  42  -1.294806
  43   0.005510
  44   0.002811
  45   0.005878
  46  -0.032692
  47  -0.195378
  48   0.000489
  49   0.004014
  50   0.000199
  51   0.039673
  52  -0.031871
  53   0.070140
  54  -0.017514
  55  -0.102692
  56  -0.526228
  57   0.134285
  58  -0.070802
  59  -0.257451
  60   0.022300
  61   0.024277
  62   0.011774
  63   0.003382
  64   0.003294
  65  -0.006976
  66   0.035677
  67   0.780116
  68   0.003964
  69  -0.000975
  70  -0.003741
  71   0.007919
  72  -0.052438
  73   0.001914
  74   0.000679
  75   0.000525
 Ene=     0.3912
 Spin= Alpha
 Occup=   0.000000
   1   0.023105
   2  -0.061368
   3   0.022371
   4  -0.167684
   5  -0.068649
   6  -0.159911
   7   0.098941
   8  -0.408303
   9  -0.170168
  10  -0.002896
  11  -0.004098
  12   0.005732
  13   0.011021
  14   0.000277
  15   0.006913
  16  -0.040589
  17  -0.604527
  18  -0.000631
  19  -0.002744
  20  -0.004538
  21   0.048071
  22   0.704209
  23   0.002346
  24  -0.004051
  25  -0.000709
  26   0.030313
  27  -0.087719
  28   0.171914
  29   0.085144
  30   0.098778
  31  -0.180202
  32   0.389075
  33   0.296552
  34   0.226991
  35   0.002608
  36  -0.017579
  37   0.006237
  38  -0.011706
  39   0.010918
  40   0.002085
  41  -0.038049
  42  -0.713863
  43   0.005237
  44  -0.000778
  45   0.006303
  46   0.051452
  47   0.760497
  48   0.002547
  49   0.006638
  50   0.000926
  51   0.037680
  52  -0.082856
  53  -0.231247
  54   0.037806
  55   0.100501
  56  -0.365023
  57  -0.613501
  58   0.082729
  59   0.246975
  60  -0.013944
  61   0.009424
  62   0.012860
  63  -0.006577
  64  -0.007759
  65   0.004636
  66  -0.049292
  67  -0.800292
  68  -0.003631
  69   0.002942
  70   0.007160
  71   0.085149
  72   1.280669
  73  -0.009609
  74   0.001218
  75   0.003074
 Ene=     0.4053
 Spin= Alpha
 Occup=   0.000000
   1  -0.037052
   2   0.075511
   3  -0.080497
   4   0.184053
   5   0.088814
   6   0.413310
   7  -0.251957
   8   0.521459
   9   0.195129
  10  -0.004929
  11   0.008467
  12  -0.010770
  13  -0.014058
  14   0.001652
  15  -0.007887
  16   0.046242
  17   0.707671
  18   0.000672
  19   0.001665
  20   0.005817
  21  -0.084858
  22  -1.318334
  23  -0.004971
  24   0.011652
  25   0.001733
  26  -0.006013
  27  -0.024985
  28   0.084004
  29  -0.177178
  30   0.013516
  31   0.257440
  32   0.121650
  33  -0.306489
  34   0.014798
  35  -0.007312
  36  -0.012468
  37  -0.011707
  38  -0.012457
  39   0.005366
  40  -0.005433
  41   0.001943
  42   0.018871
  43   0.002534
  44  -0.005372
  45  -0.000835
  46  -0.050102
  47  -0.733089
  48  -0.003389
  49   0.001988
  50  -0.000385
  51   0.022445
  52   0.001144
  53  -0.178606
  54  -0.192383
  55   0.053078
  56  -0.502918
  57  -0.439610
  58  -0.311680
  59   0.108023
  60   0.014133
  61   0.004758
  62   0.020438
  63  -0.001496
  64  -0.004831
  65  -0.003614
  66  -0.009458
  67  -0.252585
  68  -0.003282
  69  -0.003454
  70   0.004194
  71   0.092801
  72   1.432112
  73  -0.008116
  74   0.005417
  75   0.001614
 Ene=     0.4084
 Spin= Alpha
 Occup=   0.000000
   1  -0.017573
   2  -0.013719
   3  -0.270932
   4   0.034027
   5   0.017535
   6   0.458591
   7  -0.488318
   8   0.148103
   9   0.030921
  10  -0.004425
  11  -0.017766
  12  -0.019307
  13   0.007795
  14   0.007073
  15  -0.001766
  16  -0.006117
  17   0.134371
  18  -0.005402
  19   0.001657
  20   0.003042
  21  -0.082908
  22  -1.281570
  23   0.001840
  24   0.007114
  25   0.000025
  26   0.036381
  27  -0.045053
  28   0.029421
  29   0.247746
  30   0.072079
  31  -0.557617
  32   0.177839
  33   0.610745
  34   0.163081
  35   0.008642
  36   0.002146
  37   0.018641
  38  -0.005968
  39   0.002005
  40   0.007342
  41  -0.036412
  42  -0.584962
  43  -0.000229
  44   0.002975
  45   0.005738
  46   0.106904
  47   1.657951
  48   0.009765
  49   0.008686
  50   0.001992
  51  -0.016692
  52   0.054275
  53   0.049082
  54  -0.116070
  55  -0.042634
  56   0.079306
  57   0.206709
  58  -0.194620
  59  -0.111492
  60   0.020026
  61  -0.009182
  62   0.001510
  63  -0.002433
  64   0.001232
  65  -0.003266
  66   0.036862
  67   0.399027
  68  -0.001740
  69  -0.003317
  70  -0.001963
  71  -0.020484
  72  -0.306895
  73   0.006395
  74   0.000996
  75  -0.001010
 Ene=     0.9626
 Spin= Alpha
 Occup=   0.000000
   1  -0.000936
   2   0.102914
   3  -0.000907
   4  -0.107006
   5   0.084375
   6  -0.096305
   7  -0.008154
   8  -0.157581
   9  -0.270039
  10   0.098577
  11   0.065113
  12  -0.045485