[Molden Format]
[Atoms] Angs
 B     1  5     0.000000     0.000000    -0.133009
 N     2  7    -0.000000     0.000000     1.549551
 F     3  9    -0.669595     1.159772    -0.456000
 F     4  9    -0.669595    -1.159772    -0.456000
 F     5  9     1.339189     0.000000    -0.456000
 H     6  1     0.475727    -0.823983     1.903657
 H     7  1     0.475727     0.823983     1.903657
 H     8  1    -0.951454     0.000000     1.903657
[GTO]
  1 0
 s    6 1.00
  0.2068882250D+04  0.1866274590D-02
  0.3106495700D+03  0.1425148170D-01
  0.7068303300D+02  0.6955161850D-01
  0.1986108030D+02  0.2325729330D+00
  0.6299304800D+01  0.4670787120D+00
  0.2127027000D+01  0.3634314400D+00
 sp   3 1.00
  0.4727971100D+01 -0.1303937974D+00  0.7459757992D-01
  0.1190337700D+01 -0.1307889514D+00  0.3078466771D+00
  0.3594117000D+00  0.1130944484D+01  0.7434568342D+00
 sp   1 1.00
  0.1267512000D+00  0.1000000000D+01  0.1000000000D+01
 d    1 1.00
  0.6000000000D+00  0.1000000000D+01
  
  2 0
 s    6 1.00
  0.4173511460D+04  0.1834772160D-02
  0.6274579110D+03  0.1399462700D-01
  0.1429020930D+03  0.6858655181D-01
  0.4023432930D+02  0.2322408730D+00
  0.1282021290D+02  0.4690699481D+00
  0.4390437000D+01  0.3604551991D+00
 sp   3 1.00
  0.1162636190D+02 -0.1149611817D+00  0.6757974388D-01
  0.2716279800D+01 -0.1691174786D+00  0.3239072959D+00
  0.7722184000D+00  0.1145851947D+01  0.7408951398D+00
 sp   1 1.00
  0.2120315000D+00  0.1000000000D+01  0.1000000000D+01
 d    1 1.00
  0.8000000000D+00  0.1000000000D+01
  
  3 0
 s    6 1.00
  0.7001713090D+04  0.1819616901D-02
  0.1051366090D+04  0.1391607961D-01
  0.2392856900D+03  0.6840532454D-01
  0.6739744530D+02  0.2331857601D+00
  0.2151995730D+02  0.4712674392D+00
  0.7403101300D+01  0.3566185462D+00
 sp   3 1.00
  0.2084795280D+02 -0.1085069751D+00  0.7162872424D-01
  0.4808308300D+01 -0.1464516581D+00  0.3459121027D+00
  0.1344069900D+01  0.1128688581D+01  0.7224699564D+00
 sp   1 1.00
  0.3581514000D+00  0.1000000000D+01  0.1000000000D+01
 d    1 1.00
  0.8000000000D+00  0.1000000000D+01
  
  4 0
 s    6 1.00
  0.7001713090D+04  0.1819616901D-02
  0.1051366090D+04  0.1391607961D-01
  0.2392856900D+03  0.6840532454D-01
  0.6739744530D+02  0.2331857601D+00
  0.2151995730D+02  0.4712674392D+00
  0.7403101300D+01  0.3566185462D+00
 sp   3 1.00
  0.2084795280D+02 -0.1085069751D+00  0.7162872424D-01
  0.4808308300D+01 -0.1464516581D+00  0.3459121027D+00
  0.1344069900D+01  0.1128688581D+01  0.7224699564D+00
 sp   1 1.00
  0.3581514000D+00  0.1000000000D+01  0.1000000000D+01
 d    1 1.00
  0.8000000000D+00  0.1000000000D+01
  
  5 0
 s    6 1.00
  0.7001713090D+04  0.1819616901D-02
  0.1051366090D+04  0.1391607961D-01
  0.2392856900D+03  0.6840532454D-01
  0.6739744530D+02  0.2331857601D+00
  0.2151995730D+02  0.4712674392D+00
  0.7403101300D+01  0.3566185462D+00
 sp   3 1.00
  0.2084795280D+02 -0.1085069751D+00  0.7162872424D-01
  0.4808308300D+01 -0.1464516581D+00  0.3459121027D+00
  0.1344069900D+01  0.1128688581D+01  0.7224699564D+00
 sp   1 1.00
  0.3581514000D+00  0.1000000000D+01  0.1000000000D+01
 d    1 1.00
  0.8000000000D+00  0.1000000000D+01
  
  6 0
 s    3 1.00
  0.1873113700D+02  0.3349460434D-01
  0.2825394400D+01  0.2347269535D+00
  0.6401217000D+00  0.8137573261D+00
 s    1 1.00
  0.1612778000D+00  0.1000000000D+01
 p    1 1.00
  0.1100000000D+01  0.1000000000D+01
  
  7 0
 s    3 1.00
  0.1873113700D+02  0.3349460434D-01
  0.2825394400D+01  0.2347269535D+00
  0.6401217000D+00  0.8137573261D+00
 s    1 1.00
  0.1612778000D+00  0.1000000000D+01
 p    1 1.00
  0.1100000000D+01  0.1000000000D+01
  
  8 0
 s    3 1.00
  0.1873113700D+02  0.3349460434D-01
  0.2825394400D+01  0.2347269535D+00
  0.6401217000D+00  0.8137573261D+00
 s    1 1.00
  0.1612778000D+00  0.1000000000D+01
 p    1 1.00
  0.1100000000D+01  0.1000000000D+01
 

[MO]
 Ene=   -26.2500
 Spin= Alpha
 Occup=   2.000000
   1  -0.000000
   2  -0.000000
   3  -0.000274
   4   0.000678
   5  -0.000000
   6  -0.000000
   7   0.000209
   8  -0.000517
   9  -0.000000
  10  -0.000075
  11   0.000075
  12  -0.000000
  13  -0.000215
  14   0.000041
  15  -0.000101
  16  -0.000000
  17  -0.000000
  18  -0.000002
  19   0.000004
  20  -0.000000
  21  -0.000000
  22   0.000006
  23  -0.000016
  24  -0.000000
  25   0.000009
  26  -0.000009
  27  -0.000000
  28   0.000026
  29  -0.000020
  30   0.000049
  31   0.803950
  32   0.014088
  33   0.000274
  34  -0.000480
  35   0.000155
  36   0.007519
  37  -0.000176
  38   0.000315
  39  -0.000085
  40  -0.003997
  41  -0.004128
  42  -0.003968
  43   0.000147
  44  -0.000040
  45   0.000073
  46  -0.499978
  47  -0.008761
  48  -0.000161
  49  -0.000304
  50  -0.000097
  51  -0.004676
  52   0.000087
  53   0.000209
  54   0.000053
  55   0.002515
  56   0.002538
  57   0.002468
  58   0.000111
  59   0.000017
  60   0.000050
  61  -0.303973
  62  -0.005327
  63   0.000209
  64  -0.000015
  65  -0.000059
  66  -0.002843
  67  -0.000136
  68   0.000034
  69   0.000032
  70   0.001590
  71   0.001482
  72   0.001500
  73   0.000051
  74  -0.000031
  75   0.000012
  76   0.000017
  77  -0.000073
  78  -0.000009
  79   0.000018
  80   0.000018
  81  -0.000011
  82   0.000045
  83   0.000001
  84   0.000014
  85  -0.000011
  86  -0.000006
  87   0.000027
  88  -0.000008
  89   0.000007
  90  -0.000007
 Ene=   -26.2500
 Spin= Alpha
 Occup=   2.000000
   1   0.000000
   2   0.000000
   3   0.000678
   4   0.000274
   5   0.000000
   6   0.000000
   7  -0.000517
   8  -0.000209
   9   0.000000
  10   0.000186
  11  -0.000186
  12   0.000000
  13  -0.000087
  14  -0.000101
  15  -0.000041
  16   0.000000
  17   0.000000
  18   0.000004
  19   0.000002
  20   0.000000
  21   0.000000
  22  -0.000016
  23  -0.000006
  24   0.000000
  25  -0.000022
  26   0.000022
  27   0.000000
  28   0.000010
  29   0.000049
  30   0.000020
  31  -0.113164
  32  -0.001983
  33  -0.000053
  34   0.000059
  35  -0.000022
  36  -0.001058
  37   0.000057
  38  -0.000026
  39   0.000012
  40   0.000521
  41   0.000623
  42   0.000559
  43   0.000007
  44   0.000017
  45  -0.000004
  46  -0.639660
  47  -0.011209
  48  -0.000229
  49  -0.000376
  50  -0.000124
  51  -0.005982
  52   0.000163
  53   0.000237
  54   0.000068
  55   0.003150
  56   0.003315
  57   0.003157
  58   0.000097
  59   0.000040
  60   0.000053
  61   0.752823
  62   0.013192
  63  -0.000518
  64  -0.000006
  65   0.000145
  66   0.007041
  67   0.000338
  68   0.000014
  69  -0.000080
  70  -0.003938
  71  -0.003670
  72  -0.003715
  73   0.000021
  74   0.000077
  75   0.000005
  76  -0.000002
  77   0.000010
  78   0.000008
  79   0.000001
  80  -0.000002
  81  -0.000014
  82   0.000058
  83   0.000012
  84   0.000012
  85  -0.000014
  86   0.000016
  87  -0.000068
  88   0.000019
  89   0.000003
  90   0.000017
 Ene=   -26.2500
 Spin= Alpha
 Occup=   2.000000
   1   0.000001
   2   0.000989
   3  -0.000000
   4  -0.000000
   5  -0.000329
   6  -0.000646
   7  -0.000000
   8  -0.000000
   9   0.000156
  10   0.000261
  11   0.000261
  12  -0.000117
  13  -0.000000
  14  -0.000000
  15  -0.000000
  16  -0.000003
  17   0.000049
  18  -0.000000
  19  -0.000000
  20  -0.000002
  21   0.000080
  22  -0.000000
  23  -0.000000
  24   0.000078
  25  -0.000020
  26  -0.000020
  27  -0.000057
  28  -0.000000
  29  -0.000000
  30  -0.000000
  31   0.574109
  32   0.010248
  33   0.000209
  34  -0.000362
  35   0.000123
  36   0.004880
  37  -0.000227
  38   0.000393
  39  -0.000116
  40  -0.002787
  41  -0.002944
  42  -0.002682
  43   0.000157
  44  -0.000041
  45   0.000072
  46   0.574109
  47   0.010248
  48   0.000209
  49   0.000362
  50   0.000123
  51   0.004880
  52  -0.000227
  53  -0.000393
  54  -0.000116
  55  -0.002787
  56  -0.002944
  57  -0.002682
  58  -0.000157
  59  -0.000041
  60  -0.000072
  61   0.574109
  62   0.010248
  63  -0.000418
  64  -0.000000
  65   0.000123
  66   0.004880
  67   0.000453
  68  -0.000000
  69  -0.000116
  70  -0.003023
  71  -0.002708
  72  -0.002682
  73  -0.000000
  74   0.000083
  75  -0.000000
  76   0.000015
  77  -0.000045
  78   0.000002
  79  -0.000004
  80  -0.000007
  81   0.000015
  82  -0.000045
  83   0.000002
  84   0.000004
  85  -0.000007
  86   0.000015
  87  -0.000045
  88  -0.000004
  89  -0.000000
  90  -0.000007
 Ene=   -15.6639
 Spin= Alpha
 Occup=   2.000000
   1  -0.000023
   2  -0.000043
   3  -0.000000
   4  -0.000000
   5   0.000289
   6   0.000908
   7  -0.000000
   8  -0.000000
   9   0.000402
  10   0.000005
  11   0.000005
  12   0.000240
  13  -0.000000
  14  -0.000000
  15  -0.000000
  16   0.994977
  17   0.025138
  18  -0.000000
  19  -0.000000
  20   0.000899
  21  -0.002039
  22  -0.000000
  23  -0.000000
  24   0.000014
  25  -0.003234
  26  -0.003234
  27  -0.003430
  28  -0.000000
  29  -0.000000
  30  -0.000000
  31   0.000024
  32   0.000122
  33  -0.000000
  34   0.000000
  35  -0.000006
  36  -0.000463
  37  -0.000034
  38   0.000060
  39  -0.000084
  40   0.000069
  41   0.000072
  42   0.000087
  43  -0.000004
  44  -0.000004
  45   0.000008
  46   0.000024
  47   0.000122
  48  -0.000000
  49  -0.000000
  50  -0.000006
  51  -0.000463
  52  -0.000034
  53  -0.000060
  54  -0.000084
  55   0.000069
  56   0.000072
  57   0.000087
  58   0.000004
  59  -0.000004
  60  -0.000008
  61   0.000024
  62   0.000122
  63   0.000000
  64  -0.000000
  65  -0.000006
  66  -0.000463
  67   0.000069
  68  -0.000000
  69  -0.000084
  70   0.000074
  71   0.000067
  72   0.000087
  73  -0.000000
  74   0.000009
  75  -0.000000
  76   0.000160
  77   0.000332
  78   0.000115
  79  -0.000199
  80   0.000066
  81   0.000160
  82   0.000332
  83   0.000115
  84   0.000199
  85   0.000066
  86   0.000160
  87   0.000332
  88  -0.000230
  89  -0.000000
  90   0.000066
 Ene=    -7.7086
 Spin= Alpha
 Occup=   2.000000
   1   0.996471
   2   0.020786
   3   0.000000
   4   0.000000
   5   0.000369
   6  -0.004208
   7   0.000000
   8   0.000000
   9  -0.000525
  10   0.001337
  11   0.001337
  12   0.000452
  13   0.000000
  14   0.000000
  15   0.000000
  16  -0.000039
  17   0.000671
  18   0.000000
  19   0.000000
  20  -0.000150
  21  -0.001782
  22   0.000000
  23   0.000000
  24   0.000598
  25   0.000112
  26   0.000112
  27  -0.000284
  28   0.000000
  29   0.000000
  30   0.000000
  31  -0.000225
  32   0.001027
  33   0.000455
  34  -0.000788
  35   0.000188
  36  -0.002339
  37  -0.000605
  38   0.001047
  39  -0.000203
  40   0.000407
  41   0.000672
  42   0.000339
  43  -0.000265
  44   0.000043
  45  -0.000074
  46  -0.000225
  47   0.001027
  48   0.000455
  49   0.000788
  50   0.000188
  51  -0.002339
  52  -0.000605
  53  -0.001047
  54  -0.000203
  55   0.000407
  56   0.000672
  57   0.000339
  58   0.000265
  59   0.000043
  60   0.000074
  61  -0.000225
  62   0.001027
  63  -0.000910
  64   0.000000
  65   0.000188
  66  -0.002339
  67   0.001209
  68   0.000000
  69  -0.000203
  70   0.000804
  71   0.000275
  72   0.000339
  73   0.000000
  74  -0.000085
  75   0.000000
  76   0.000137
  77   0.000518
  78  -0.000018
  79   0.000030
  80  -0.000176
  81   0.000137
  82   0.000518
  83  -0.000018
  84  -0.000030
  85  -0.000176
  86   0.000137
  87   0.000518
  88   0.000035
  89   0.000000
  90  -0.000176
 Ene=    -1.5819
 Spin= Alpha
 Occup=   2.000000
   1  -0.085066
   2   0.109617
   3  -0.000000
   4  -0.000000
   5  -0.026127
   6  -0.006437
   7  -0.000000
   8  -0.000000
   9  -0.010592
  10   0.005257
  11   0.005257
  12  -0.015321
  13  -0.000000
  14  -0.000000
  15  -0.000000
  16  -0.013185
  17   0.023377
  18  -0.000000
  19  -0.000000
  20  -0.011586
  21   0.032374
  22  -0.000000
  23  -0.000000
  24  -0.019277
  25  -0.001123
  26  -0.001123
  27   0.004793
  28  -0.000000
  29  -0.000000
  30  -0.000000
  31  -0.126449
  32   0.291619
  33   0.020134
  34  -0.034873
  35   0.009127
  36   0.251754
  37   0.012583
  38  -0.021794
  39   0.009011
  40   0.014798
  41   0.020938
  42   0.013019
  43  -0.006140
  44   0.001679
  45  -0.002908
  46  -0.126449
  47   0.291619
  48   0.020134
  49   0.034873
  50   0.009127
  51   0.251754
  52   0.012583
  53   0.021794
  54   0.009011
  55   0.014798
  56   0.020938
  57   0.013019
  58   0.006140
  59   0.001679
  60   0.002908
  61  -0.126449
  62   0.291619
  63  -0.040268
  64   0.000000
  65   0.009127
  66   0.251754
  67  -0.025166
  68  -0.000000
  69   0.009011
  70   0.024008
  71   0.011728
  72   0.013019
  73  -0.000000
  74  -0.003358
  75  -0.000000
  76   0.005220
  77   0.004963
  78  -0.000606
  79   0.001049
  80  -0.000484
  81   0.005220
  82   0.004963
  83  -0.000606
  84  -0.001049
  85  -0.000484
  86   0.005220
  87   0.004963
  88   0.001211
  89  -0.000000
  90  -0.000484
 Ene=    -1.5384
 Spin= Alpha
 Occup=   2.000000
   1   0.000000
   2   0.000000
   3  -0.002786
   4   0.109866
   5   0.000000
   6   0.000000
   7  -0.000115
   8   0.004542
   9   0.000000
  10  -0.000622
  11   0.000622
  12   0.000000
  13  -0.028331
  14   0.000321
  15  -0.012659
  16   0.000000
  17   0.000000
  18  -0.000136
  19   0.005345
  20   0.000000
  21   0.000000
  22  -0.000005
  23   0.000188
  24   0.000000
  25  -0.000010
  26   0.000010
  27   0.000000
  28  -0.000453
  29   0.000010
  30  -0.000390
  31  -0.163599
  32   0.384020
  33   0.021318
  34  -0.028512
  35   0.012444
  36   0.309193
  37   0.006255
  38  -0.008689
  39   0.006533
  40   0.020416
  41   0.022886
  42   0.019376
  43  -0.003745
  44   0.001528
  45  -0.001952
  46   0.158879
  47  -0.372939
  48  -0.021143
  49  -0.027435
  50  -0.012085
  51  -0.300271
  52  -0.006187
  53  -0.008374
  54  -0.006344
  55  -0.019885
  56  -0.022168
  57  -0.018817
  58  -0.003675
  59  -0.001520
  60  -0.001875
  61   0.004721
  62  -0.011081
  63   0.001020
  64   0.008799
  65  -0.000359
  66  -0.008922
  67   0.000307
  68   0.002244
  69  -0.000189
  70  -0.000724
  71  -0.000526
  72  -0.000559
  73  -0.001333
  74   0.000071
  75   0.000727
  76  -0.001636
  77  -0.002161
  78   0.000292
  79  -0.000142
  80   0.000374
  81   0.001589
  82   0.002099
  83  -0.000302
  84  -0.000127
  85  -0.000363
  86   0.000047
  87   0.000062
  88   0.000008
  89   0.000380
  90  -0.000011
 Ene=    -1.5384
 Spin= Alpha
 Occup=   2.000000
   1  -0.000000
   2  -0.000000
   3   0.109866
   4   0.002786
   5  -0.000000
   6  -0.000000
   7   0.004542
   8   0.000115
   9  -0.000000
  10   0.024535
  11  -0.024535
  12  -0.000000
  13  -0.000718
  14  -0.012659
  15  -0.000321
  16  -0.000000
  17  -0.000000
  18   0.005345
  19   0.000136
  20  -0.000000
  21  -0.000000
  22   0.000188
  23   0.000005
  24  -0.000000
  25   0.000393
  26  -0.000393
  27  -0.000000
  28  -0.000011
  29  -0.000390
  30  -0.000010
  31   0.089003
  32  -0.208919
  33  -0.002920
  34   0.020521
  35  -0.006770
  36  -0.168211
  37  -0.001190
  38   0.006005
  39  -0.003554
  40  -0.009968
  41  -0.013589
  42  -0.010541
  43   0.001278
  44  -0.000115
  45   0.001476
  46   0.097180
  47  -0.228112
  48  -0.003997
  49  -0.021940
  50  -0.007392
  51  -0.183664
  52  -0.001506
  53  -0.006437
  54  -0.003881
  55  -0.010990
  56  -0.014732
  57  -0.011510
  58  -0.001466
  59  -0.000192
  60  -0.001573
  61  -0.186183
  62   0.437031
  63  -0.040231
  64   0.000223
  65   0.014162
  66   0.351875
  67  -0.012123
  68   0.000057
  69   0.007435
  70   0.028539
  71   0.020741
  72   0.022051
  73  -0.000034
  74  -0.002793
  75   0.000018
  76   0.000890
  77   0.001176
  78   0.000216
  79   0.000293
  80  -0.000204
  81   0.000972
  82   0.001284
  83   0.000201
  84  -0.000300
  85  -0.000222
  86  -0.001862
  87  -0.002460
  88  -0.000306
  89   0.000010
  90   0.000426
 Ene=    -1.2684
 Spin= Alpha
 Occup=   2.000000
   1  -0.018605
   2   0.028355
   3  -0.000000
   4  -0.000000
   5   0.057082
   6  -0.019835
   7  -0.000000
   8  -0.000000
   9  -0.010250
  10  -0.004342
  11  -0.004342
  12   0.018815
  13  -0.000000
  14  -0.000000
  15  -0.000000
  16  -0.201543
  17   0.419512
  18  -0.000000
  19  -0.000000
  20   0.038804
  21   0.435264
  22  -0.000000
  23  -0.000000
  24   0.011206
  25  -0.000695
  26  -0.000695
  27   0.000711
  28  -0.000000
  29  -0.000000
  30  -0.000000
  31   0.013579
  32  -0.032006
  33   0.002010
  34  -0.003481
  35   0.013437
  36  -0.028265
  37   0.001387
  38  -0.002402
  39   0.005654
  40  -0.001020
  41  -0.001162
  42  -0.001832
  43   0.000143
  44   0.000160
  45  -0.000277
  46   0.013579
  47  -0.032006
  48   0.002010
  49   0.003481
  50   0.013437
  51  -0.028265
  52   0.001387
  53   0.002402
  54   0.005654
  55  -0.001020
  56  -0.001162
  57  -0.001832
  58  -0.000143
  59   0.000160
  60   0.000277
  61   0.013579
  62  -0.032006
  63  -0.004019
  64   0.000000
  65   0.013437
  66  -0.028265
  67  -0.002774
  68  -0.000000
  69   0.005654
  70  -0.001234
  71  -0.000948
  72  -0.001832
  73  -0.000000
  74  -0.000319
  75  -0.000000
  76   0.133911
  77   0.009321
  78  -0.009265
  79   0.016047
  80  -0.005848
  81   0.133911
  82   0.009321
  83  -0.009265
  84  -0.016047
  85  -0.005848
  86   0.133911
  87   0.009321
  88   0.018529
  89  -0.000000
  90  -0.005848
 Ene=    -0.7839
 Spin= Alpha
 Occup=   2.000000
   1  -0.143402
   2   0.261269
   3  -0.000000
   4  -0.000000
   5   0.021537
   6  -0.035923
   7  -0.000000
   8  -0.000000
   9  -0.010338
  10   0.004391
  11   0.004391
  12  -0.001668
  13  -0.000000
  14  -0.000000
  15  -0.000000
  16   0.002932
  17  -0.013353
  18  -0.000000
  19  -0.000000
  20  -0.216597
  21   0.041821
  22  -0.000000
  23  -0.000000
  24  -0.169415
  25  -0.004563
  26  -0.004563
  27   0.009882
  28  -0.000000
  29  -0.000000
  30  -0.000000
  31   0.036984
  32  -0.092216
  33   0.129993
  34  -0.225154
  35   0.088261
  36  -0.101527
  37   0.089751
  38  -0.155453
  39   0.058990
  40  -0.002930
  41   0.007263
  42  -0.006260
  43  -0.010193
  44   0.003594
  45  -0.006225
  46   0.036984
  47  -0.092216
  48   0.129993
  49   0.225154
  50   0.088261
  51  -0.101527
  52   0.089751
  53   0.155453
  54   0.058990
  55  -0.002930
  56   0.007263
  57  -0.006260
  58   0.010193
  59   0.003594
  60   0.006225
  61   0.036984
  62  -0.092216
  63  -0.259985
  64   0.000000
  65   0.088261
  66  -0.101527
  67  -0.179502
  68   0.000000
  69   0.058990
  70   0.012359
  71  -0.008026
  72  -0.006260
  73  -0.000000
  74  -0.007187
  75  -0.000000
  76  -0.044869
  77  -0.011903
  78   0.002352
  79  -0.004073
  80  -0.002981
  81  -0.044869
  82  -0.011903
  83   0.002352
  84   0.004073
  85  -0.002981
  86  -0.044869
  87  -0.011903
  88  -0.004704
  89  -0.000000
  90  -0.002981
 Ene=    -0.7541
 Spin= Alpha
 Occup=   2.000000
   1   0.000000
   2   0.000000
   3  -0.020594
   4   0.112792
   5   0.000000
   6   0.000000
   7   0.001034
   8  -0.005664
   9   0.000000
  10  -0.001309
  11   0.001309
  12   0.000000
  13  -0.008277
  14  -0.000983
  15   0.005383
  16   0.000000
  17   0.000000
  18  -0.078874
  19   0.431996
  20   0.000000
  21   0.000000
  22  -0.047523
  23   0.260284
  24   0.000000
  25   0.002820
  26  -0.002820
  27   0.000000
  28   0.017834
  29  -0.003082
  30   0.016878
  31   0.018648
  32  -0.036815
  33   0.085137
  34  -0.084110
  35   0.099296
  36  -0.080290
  37   0.052746
  38  -0.046383
  39   0.060030
  40   0.003599
  41   0.003569
  42   0.001525
  43  -0.003158
  44   0.002331
  45  -0.002696
  46  -0.015092
  47   0.029794
  48  -0.099506
  49  -0.050397
  50  -0.080358
  51   0.064977
  52  -0.064415
  53  -0.024991
  54  -0.048581
  55  -0.004247
  56  -0.001554
  57  -0.001234
  58  -0.003445
  59  -0.002535
  60  -0.001807
  61  -0.003557
  62   0.007021
  63   0.022011
  64   0.092652
  65  -0.018938
  66   0.015313
  67   0.012691
  68   0.065778
  69  -0.011449
  70  -0.001134
  71  -0.000233
  72  -0.000291
  73  -0.004664
  74   0.000668
  75   0.001963
  76  -0.229974
  77  -0.107869
  78   0.009338
  79  -0.009900
  80   0.007951
  81   0.186113
  82   0.087296
  83  -0.010587
  84  -0.006262
  85  -0.006435
  86   0.043861
  87   0.020573
  88   0.002526
  89   0.009174
  90  -0.001516
 Ene=    -0.7541
 Spin= Alpha
 Occup=   2.000000
   1  -0.000000
   2  -0.000000
   3   0.112792
   4   0.020594
   5  -0.000000
   6  -0.000000
   7  -0.005664
   8  -0.001034
   9  -0.000000
  10   0.007168
  11  -0.007168
  12  -0.000000
  13  -0.001511
  14   0.005383
  15   0.000983
  16  -0.000000
  17  -0.000000
  18   0.431996
  19   0.078874
  20  -0.000000
  21  -0.000000
  22   0.260284
  23   0.047523
  24  -0.000000
  25  -0.015445
  26   0.015445
  27  -0.000000
  28   0.003256
  29   0.016878
  30   0.003082
  31  -0.006660
  32   0.013148
  33   0.056206
  34   0.080042
  35  -0.035461
  36   0.028674
  37   0.042652
  38   0.052065
  39  -0.021438
  40   0.002490
  41  -0.005050
  42  -0.000544
  43  -0.001389
  44   0.001002
  45   0.002022
  46  -0.012820
  47   0.025309
  48   0.022494
  49  -0.104600
  50  -0.068262
  51   0.055196
  52   0.021260
  53  -0.065097
  54  -0.041269
  55   0.001058
  56  -0.005985
  57  -0.001048
  58   0.000184
  59   0.000114
  60  -0.002844
  61   0.019480
  62  -0.038456
  63  -0.120555
  64   0.016916
  65   0.103724
  66  -0.083870
  67  -0.069509
  68   0.012010
  69   0.062707
  70   0.006210
  71   0.001278
  72   0.001593
  73  -0.000852
  74  -0.003656
  75   0.000358
  76   0.082129
  77   0.038523
  78   0.005241
  79   0.008487
  80  -0.002840
  81   0.158098
  82   0.074156
  83   0.001603
  84  -0.011438
  85  -0.005466
  86  -0.240228
  87  -0.112678
  88  -0.013833
  89   0.001675
  90   0.008306
 Ene=    -0.7057
 Spin= Alpha
 Occup=   2.000000
   1  -0.014158
   2   0.048999
   3  -0.000000
   4  -0.000000
   5  -0.212586
   6  -0.041000
   7  -0.000000
   8  -0.000000
   9  -0.078751
  10   0.004304
  11   0.004304
  12  -0.016870
  13  -0.000000
  14  -0.000000
  15  -0.000000
  16   0.002967
  17  -0.017064
  18  -0.000000
  19  -0.000000
  20   0.264887
  21   0.022909
  22  -0.000000
  23  -0.000000
  24   0.163320
  25  -0.000844
  26  -0.000844
  27  -0.003849
  28  -0.000000
  29  -0.000000
  30  -0.000000
  31   0.008500
  32  -0.018085
  33   0.086148
  34  -0.149213
  35  -0.230984
  36  -0.034265
  37   0.059117
  38  -0.102394
  39  -0.153317
  40   0.002146
  41   0.008375
  42  -0.005245
  43  -0.006229
  44  -0.003606
  45   0.006245
  46   0.008500
  47  -0.018085
  48   0.086148
  49   0.149213
  50  -0.230984
  51  -0.034265
  52   0.059117
  53   0.102394
  54  -0.153317
  55   0.002146
  56   0.008375
  57  -0.005245
  58   0.006229
  59  -0.003606
  60  -0.006245
  61   0.008500
  62  -0.018085
  63  -0.172296
  64   0.000000
  65  -0.230984
  66  -0.034265
  67  -0.118234
  68   0.000000
  69  -0.153317
  70   0.011489
  71  -0.000969
  72  -0.005245
  73  -0.000000
  74   0.007211
  75  -0.000000
  76   0.046423
  77   0.016114
  78  -0.002705
  79   0.004685
  80   0.005307
  81   0.046423
  82   0.016114
  83  -0.002705
  84  -0.004685
  85   0.005307
  86   0.046423
  87   0.016114
  88   0.005410
  89  -0.000000
  90   0.005307
 Ene=    -0.6944
 Spin= Alpha
 Occup=   2.000000
   1  -0.000000
   2  -0.000000
   3   0.053249
   4   0.235068
   5  -0.000000
   6  -0.000000
   7   0.006741
   8   0.029759
   9  -0.000000
  10   0.003617
  11  -0.003617
  12  -0.000000
  13  -0.018439
  14  -0.004349
  15  -0.019199
  16  -0.000000
  17  -0.000000
  18  -0.042347
  19  -0.186940
  20  -0.000000
  21  -0.000000
  22  -0.028225
  23  -0.124598
  24  -0.000000
  25   0.001622
  26  -0.001622
  27  -0.000000
  28  -0.008270
  29  -0.002666
  30  -0.011767
  31   0.021437
  32  -0.036273
  33   0.283047
  34  -0.139192
  35   0.052744
  36  -0.118001
  37   0.189944
  38  -0.081856
  39   0.032725
  40   0.011697
  41   0.006495
  42   0.002797
  43  -0.010536
  44   0.005119
  45  -0.003204
  46  -0.027887
  47   0.047188
  48  -0.236806
  49  -0.256952
  50  -0.068616
  51   0.153511
  52  -0.154589
  53  -0.159902
  54  -0.042572
  55  -0.010115
  56  -0.013551
  57  -0.003638
  58  -0.010305
  59  -0.004540
  60  -0.005393
  61   0.006451
  62  -0.010915
  63  -0.078863
  64   0.252134
  65   0.015872
  66  -0.035510
  67  -0.049912
  68   0.177496
  69   0.009848
  70   0.004724
  71   0.000751
  72   0.000842
  73  -0.011304
  74  -0.001605
  75   0.004067
  76   0.082096
  77   0.033993
  78  -0.004357
  79   0.002269
  80  -0.001291
  81  -0.106801
  82  -0.044222
  83   0.003692
  84   0.004092
  85   0.001680
  86   0.024705
  87   0.010229
  88   0.001247
  89  -0.003790
  90  -0.000389
 Ene=    -0.6944
 Spin= Alpha
 Occup=   2.000000
   1  -0.000000
   2  -0.000000
   3  -0.235068
   4   0.053249
   5  -0.000000
   6  -0.000000
   7  -0.029759
   8   0.006741
   9  -0.000000
  10  -0.015968
  11   0.015968
  12  -0.000000
  13  -0.004177
  14   0.019199
  15  -0.004349
  16  -0.000000
  17  -0.000000
  18   0.186940
  19  -0.042347
  20  -0.000000
  21  -0.000000
  22   0.124598
  23  -0.028225
  24  -0.000000
  25  -0.007162
  26   0.007162
  27  -0.000000
  28  -0.001873
  29   0.011767
  30  -0.002666
  31   0.019825
  32  -0.033546
  33  -0.043185
  34  -0.304795
  35   0.048779
  36  -0.109131
  37  -0.039015
  38  -0.199649
  39   0.030265
  40  -0.001022
  41   0.017846
  42   0.002586
  43  -0.001851
  44  -0.000184
  45  -0.005803
  46   0.008652
  47  -0.014640
  48  -0.160946
  49   0.215058
  50   0.021288
  51  -0.047627
  52  -0.117060
  53   0.144885
  54   0.013208
  55  -0.005963
  56   0.013306
  57   0.001129
  58  -0.002870
  59  -0.002373
  60   0.003856
  61  -0.028477
  62   0.048186
  63   0.348140
  64   0.057115
  65  -0.070067
  66   0.156758
  67   0.220337
  68   0.040207
  69  -0.043473
  70  -0.020853
  71  -0.003314
  72  -0.003715
  73  -0.002561
  74   0.007087
  75   0.000921
  76   0.075925
  77   0.031438
  78   0.000555
  79   0.004745
  80  -0.001194
  81   0.033135
  82   0.013720
  83   0.002378
  84  -0.003304
  85  -0.000521
  86  -0.109059
  87  -0.045157
  88  -0.005504
  89  -0.000859
  90   0.001715
 Ene=    -0.6120
 Spin= Alpha
 Occup=   2.000000
   1   0.000000
   2   0.000000
   3   0.079367
   4   0.031749
   5   0.000000
   6   0.000000
   7  -0.070560
   8  -0.028226
   9   0.000000
  10   0.035476
  11  -0.035476
  12   0.000000
  13  -0.016387
  14   0.010224
  15   0.004090
  16   0.000000
  17   0.000000
  18  -0.052944
  19  -0.021180
  20   0.000000
  21   0.000000
  22   0.009532
  23   0.003813
  24   0.000000
  25   0.003835
  26  -0.003835
  27   0.000000
  28  -0.001771
  29  -0.005921
  30  -0.002369
  31  -0.000571
  32   0.003804
  33  -0.309807
  34  -0.155073
  35  -0.051735
  36  -0.003092
  37  -0.222038
  38  -0.112498
  39  -0.038950
  40  -0.005800
  41   0.008225
  42   0.000263
  43   0.005270
  44  -0.003068
  45   0.000484
  46  -0.003148
  47   0.020970
  48  -0.243907
  49   0.009664
  50  -0.285167
  51  -0.017043
  52  -0.171934
  53   0.012751
  54  -0.214692
  55   0.003391
  56   0.009973
  57   0.001448
  58  -0.005472
  59  -0.006691
  60  -0.008571
  61   0.003719
  62  -0.024775
  63  -0.134191
  64  -0.129776
  65   0.336902
  66   0.020135
  67  -0.088517
  68  -0.093264
  69   0.253642
  70  -0.004990
  71  -0.010798
  72  -0.001711
  73   0.003620
  74  -0.012722
  75  -0.000906
  76  -0.006074
  77  -0.005323
  78  -0.001582
  79  -0.001261
  80   0.000147
  81  -0.033478
  82  -0.029343
  83  -0.000252
  84   0.002064
  85   0.000810
  86   0.039552
  87   0.034666
  88   0.001963
  89  -0.000751
  90  -0.000957
 Ene=    -0.6120
 Spin= Alpha
 Occup=   2.000000
   1   0.000000
   2   0.000000
   3  -0.031749
   4   0.079367
   5   0.000000
   6   0.000000
   7   0.028226
   8  -0.070560
   9   0.000000
  10  -0.014192
  11   0.014192
  12   0.000000
  13  -0.040964
  14  -0.004090
  15   0.010224
  16   0.000000
  17   0.000000
  18   0.021180
  19  -0.052944
  20   0.000000
  21   0.000000
  22  -0.003813
  23   0.009532
  24   0.000000
  25  -0.001534
  26   0.001534
  27   0.000000
  28  -0.004428
  29   0.002369
  30  -0.005921
  31   0.003965
  32  -0.026411
  33   0.028383
  34  -0.148796
  35   0.359152
  36   0.021464
  37   0.016177
  38  -0.099622
  39   0.270393
  40  -0.011006
  41  -0.005825
  42  -0.001824
  43  -0.002401
  44   0.006480
  45  -0.011919
  46  -0.002477
  47   0.016500
  48   0.193120
  49  -0.214696
  50  -0.224380
  51  -0.013410
  52   0.141425
  53  -0.149725
  54  -0.168928
  55   0.011970
  56  -0.001454
  57   0.001140
  58   0.001896
  59  -0.002576
  60  -0.008296
  61  -0.001488
  62   0.009911
  63   0.053681
  64  -0.324413
  65  -0.134772
  66  -0.008054
  67   0.035410
  68  -0.233142
  69  -0.101465
  70   0.001996
  71   0.004320
  72   0.000684
  73   0.009050
  74   0.005089
  75  -0.002265
  76   0.042164
  77   0.036956
  78  -0.001296
  79   0.001668
  80  -0.001020
  81  -0.026342
  82  -0.023088
  83   0.002029
  84   0.000338
  85   0.000637
  86  -0.015822
  87  -0.013868
  88  -0.000785
  89  -0.001877
  90   0.000383
 Ene=    -0.5878
 Spin= Alpha
 Occup=   2.000000
   1   0.000000
   2   0.000000
   3  -0.062761
   4   0.001326
   5   0.000000
   6   0.000000
   7   0.085848
   8  -0.001814
   9   0.000000
  10  -0.024433
  11   0.024433
  12   0.000000
  13  -0.000596
  14   0.025309
  15  -0.000535
  16   0.000000
  17   0.000000
  18  -0.068163
  19   0.001440
  20   0.000000
  21   0.000000
  22  -0.036996
  23   0.000782
  24   0.000000
  25   0.003610
  26  -0.003610
  27   0.000000
  28   0.000088
  29  -0.005935
  30   0.000125
  31  -0.000114
  32  -0.004510
  33   0.270903
  34  -0.019603
  35  -0.187629
  36   0.013064
  37   0.189315
  38  -0.016151
  39  -0.141879
  40   0.002787
  41  -0.001469
  42  -0.006418
  43  -0.006607
  44   0.000176
  45   0.006281
  46  -0.000106
  47  -0.004192
  48   0.270331
  49   0.007507