[Molden Format]
[FREQ]
  144.9300
  272.2700
  272.2800
  451.3600
  451.3600
  452.8500
  686.4800
  827.3600
  827.3600
  904.9500
 1311.6100
 1311.6100
 1370.5700
 1698.2600
 1698.2600
 3541.9300
 3691.3600
 3691.3600
[INT]
    0.0000
   11.6818
   11.6822
    0.7762
    0.7762
    1.4570
  111.6250
    2.4111
    2.4111
  265.6817
  360.7985
  360.7964
  235.8712
   28.9472
   28.9472
   18.8707
   53.6085
   53.6085
[FR-COORD]
 B     0.000000     0.000000    -0.251350
 N    -0.000000     0.000000     2.928229
 F    -1.265351     2.191652    -0.861715
 F    -1.265351    -2.191652    -0.861715
 F     2.530702     0.000000    -0.861715
 H     0.898994    -1.557104     3.597391
 H     0.898994     1.557104     3.597391
 H    -1.797988     0.000000     3.597391
[FR-NORM-COORD]
vibration     1
    0.000000    -0.000052     0.000000
    0.000000    -0.000107    -0.000000
   -0.004245    -0.002470     0.000070
    0.004245    -0.002470    -0.000070
    0.000000     0.004871    -0.000000
   -0.489602    -0.283097    -0.000059
    0.489602    -0.283097     0.000059
    0.000000     0.564921    -0.000000
vibration     2
    0.000005    -0.013817     0.000000
   -0.000012     0.030571     0.000000
   -0.005235    -0.003997     0.025625
    0.005243    -0.004001    -0.025614
    0.000000    -0.013074    -0.000012
    0.006109     0.208666     0.210720
   -0.006277     0.208671    -0.210625
   -0.000080     0.218293    -0.000095
vibration     3
   -0.013817    -0.000005    -0.000000
    0.030571     0.000012    -0.000000
   -0.010050    -0.005241    -0.014781
   -0.010046     0.005238    -0.014801
   -0.000974    -0.000005     0.029583
    0.215271     0.005958    -0.121556
    0.215266    -0.005795    -0.121721
    0.205095     0.000085     0.243258
vibration     4
    0.026756    -0.000001     0.000002
    0.000934    -0.000000    -0.000033
   -0.016922    -0.023820     0.001296
   -0.016924     0.023819     0.001296
    0.024349     0.000001    -0.002567
   -0.077885    -0.002961     0.101541
   -0.077885     0.002967     0.101527
   -0.072761     0.000003    -0.203471
vibration     5
   -0.000001    -0.026756    -0.000000
   -0.000000    -0.000934     0.000000
    0.023824    -0.010589     0.002230
   -0.023823    -0.010591    -0.002230
   -0.000001     0.030676     0.000000
    0.002961     0.074465     0.176090
   -0.002955     0.074465    -0.176098
    0.000003     0.079599     0.000008
vibration     6
    0.000016     0.000000    -0.002841
    0.000001     0.000000     0.054469
    0.003824    -0.006656    -0.013769
    0.003824     0.006656    -0.013769
   -0.007654    -0.000000    -0.013772
   -0.002669     0.004545     0.220453
   -0.002669    -0.004545     0.220453
    0.005210    -0.000000     0.220271
vibration     7
    0.000000    -0.000000     0.057281
   -0.000000     0.000000    -0.016021
    0.010992    -0.019038    -0.004022
    0.010992     0.019038    -0.004022
   -0.021983    -0.000000    -0.004022
    0.003398    -0.005888    -0.077259
    0.003398     0.005888    -0.077259
   -0.006801    -0.000000    -0.077264
vibration     8
   -0.005087    -0.000002    -0.000001
   -0.032026    -0.000014    -0.000001
    0.001535    -0.007327     0.004588
    0.001542     0.007336     0.004595
    0.014236    -0.000001    -0.009183
    0.155494     0.024559    -0.306408
    0.155472    -0.024448    -0.306874
    0.113039     0.000074     0.613303
vibration     9
    0.000002    -0.005087     0.000000
    0.000014    -0.032026     0.000000
   -0.007332     0.010007    -0.007954
    0.007330     0.010000     0.007950
   -0.000006    -0.002694     0.000004
    0.024409     0.127161     0.531264
   -0.024546     0.127183    -0.530995
   -0.000050     0.169661    -0.000269
vibration    10
    0.000001     0.000000     0.063327
   -0.000001    -0.000000     0.003588
   -0.009765     0.016914    -0.009935
   -0.009765    -0.016914    -0.009935
    0.019529    -0.000000    -0.009935
    0.004455    -0.007707    -0.004066
    0.004455     0.007707    -0.004066
   -0.008897     0.000000    -0.004038
vibration    11
    0.000067     0.079735    -0.000000
   -0.000007    -0.007756    -0.000000
    0.006616    -0.014376     0.003440
   -0.006628    -0.014387    -0.003443
   -0.000015    -0.002913     0.000003
    0.016238     0.037822     0.123613
   -0.016143     0.037795    -0.123733
    0.000024     0.065860     0.000120
vibration    12
    0.079735    -0.000067    -0.000002
   -0.007756     0.000007    -0.000001
   -0.006741     0.006633    -0.001990
   -0.006730    -0.006609    -0.001984
   -0.018206     0.000002     0.003974
    0.056493     0.016163    -0.071498
    0.056520    -0.016227    -0.071290
    0.028463    -0.000056     0.142813
vibration    13
   -0.000001     0.000000     0.003793
    0.000001    -0.000000    -0.030274
   -0.000085     0.000147    -0.000033
   -0.000085    -0.000147    -0.000033
    0.000170     0.000000    -0.000033
   -0.097487     0.168864     0.480175
   -0.097487    -0.168864     0.480175
    0.194986     0.000000     0.480160
vibration    14
    0.000000    -0.002900     0.000000
    0.000002    -0.015566    -0.000000
    0.000078     0.000137    -0.000045
   -0.000078     0.000137     0.000045
   -0.000000     0.000272     0.000000
    0.377125     0.070643    -0.242741
   -0.377270     0.070751     0.242701
    0.000021     0.724033     0.000040
vibration    15
   -0.002900    -0.000000    -0.000000
   -0.015566    -0.000002     0.000000
    0.000227     0.000078     0.000026
    0.000227    -0.000078     0.000026
    0.000092     0.000000    -0.000052
    0.506308     0.377208     0.140097
    0.506200    -0.377188     0.140167
   -0.147082     0.000104    -0.280273
vibration    16
    0.000000     0.000000     0.000424
    0.000000     0.000000     0.010288
   -0.000029     0.000051    -0.000069
   -0.000029    -0.000051    -0.000069
    0.000059    -0.000000    -0.000069
   -0.269252     0.466360    -0.177066
   -0.269252    -0.466360    -0.177066
    0.538450     0.000000    -0.177046
vibration    17
   -0.000001    -0.000274     0.000000
   -0.000093    -0.020590     0.000000
   -0.000010     0.000028     0.000003
    0.000010     0.000028    -0.000003
    0.000000     0.000011     0.000000
   -0.320031     0.540704    -0.232482
    0.321582     0.543601     0.233697
    0.003284    -0.013498    -0.001215
vibration    18
   -0.000274     0.000001     0.000000
   -0.020590     0.000093     0.000001
    0.000017    -0.000010    -0.000002
    0.000017     0.000010    -0.000002
    0.000034    -0.000000     0.000003
    0.173155    -0.323232     0.135618
    0.170258     0.318336     0.133513
    0.727395     0.000061    -0.269157
