[Molden Format]
[GEOCONV]
energy
      0.000000
[GEOMETRIES] XYZ
    9
FINAL HEAT OF FORMATION =     0.000000
 O     4.936541     3.474617     5.106962
 H     4.858474     2.971095     4.290744
 H     4.221633     4.137018     5.053394
 O    -3.637951     5.863464    14.915975
 H    -3.182367     6.041620    15.744257
 H    -3.860477     4.914234    14.958950
 O    23.564716     5.884476    44.843862
 H    23.189352     6.273160    45.639583
 H    24.490843     6.190487    44.828747
